27
opt-FC_b3lyp_aug-cc-pVTZ, Energy = -723.7785131930
C    -1.8168006   -0.8711332    0.0000000 
C    -3.1215182   -1.2682702    0.0000000 
C    -4.2306881   -0.3278624    0.0000000 
C    -3.8373197    1.0696190    0.0000000 
C    -1.4509655    0.5109478    0.0000000 
H    -1.0222940   -1.6044711    0.0000000 
H    -3.3801867   -2.3209278    0.0000000 
O    -5.4274829   -0.6948428    0.0000000 
H    -4.6336085    1.8045574    0.0000000 
H    -2.2768554    2.5064378    0.0000000 
C    -0.1286062    0.9894552    0.0000000 
C     2.3607921    1.0631516    0.0000000 
C     2.6271010   -1.1862356    0.0000000 
C     1.0954323    0.3463444    0.0000000 
H    -0.0261668    2.0716124    0.0000000 
O     2.6600277    2.2602123    0.0000000 
N     1.3401646   -1.0345246    0.0000000 
N     3.3131869    0.0188603    0.0000000 
C     3.3325346   -2.4983923    0.0000000 
H     3.9716645   -2.6175740    0.8804537 
H     2.5879841   -3.2913062    0.0000000 
H     3.9716645   -2.6175740   -0.8804537 
C     4.7348848    0.2439701    0.0000000 
H     4.8817951    1.3235464    0.0000000 
H     5.2146779   -0.1780056    0.8875147 
H     5.2146779   -0.1780056   -0.8875147 
